# LAMMPS data file written by OVITO
4320 atoms
2 atom types
-16.1598797 22.6238346 xlo xhi
-16.1598797 22.6238346 ylo yhi
-22.446928 33.6703949 zlo zhi

Atoms # atomic

1 1 -16.1598797 -16.1598797 -18.566639
2 1 -14.5438919 -14.5438919 -20.7154846
3 1 -14.5438919 -14.5438919 -12.9549074
4 1 -16.1598797 -16.1598797 -15.1037521
5 2 -16.1598797 -16.1598797 -22.446928
6 2 -14.5438919 -14.5438919 -16.8351956
7 1 -16.1598797 -16.1598797 -7.3431759
8 1 -14.5438919 -14.5438919 -9.4920206
9 1 -14.5438919 -14.5438919 -1.7314434
10 1 -16.1598797 -16.1598797 -3.8802882
11 2 -16.1598797 -16.1598797 -11.223464
12 2 -14.5438919 -14.5438919 -5.611732
13 1 -16.1598797 -16.1598797 3.8802884
14 1 -14.5438919 -14.5438919 1.7314438
15 1 -14.5438919 -14.5438919 9.4920206
16 1 -16.1598797 -16.1598797 7.3431759
17 2 -16.1598797 -16.1598797 0.0
18 2 -14.5438919 -14.5438919 5.611732
19 1 -16.1598797 -16.1598797 15.1037521
20 1 -14.5438919 -14.5438919 12.9549074
21 1 -14.5438919 -14.5438919 20.7154846
22 1 -16.1598797 -16.1598797 18.566639
23 2 -16.1598797 -16.1598797 11.223464
24 2 -14.5438919 -14.5438919 16.8351956
25 1 -16.1598797 -16.1598797 26.3272171
26 1 -14.5438919 -14.5438919 24.1783714
27 1 -14.5438919 -14.5438919 31.9389496
28 1 -16.1598797 -16.1598797 29.7901039
29 2 -16.1598797 -16.1598797 22.446928
30 2 -14.5438919 -14.5438919 28.0586605
31 1 -16.1598797 -12.9279042 -18.566639
32 1 -14.5438919 -11.3119164 -20.7154846
33 1 -14.5438919 -11.3119164 -12.9549074
34 1 -16.1598797 -12.9279042 -15.1037521
35 2 -16.1598797 -12.9279042 -22.446928
36 2 -14.5438919 -11.3119164 -16.8351956
37 1 -16.1598797 -12.9279042 -7.3431759
38 1 -14.5438919 -11.3119164 -9.4920206
39 1 -14.5438919 -11.3119164 -1.7314434
40 1 -16.1598797 -12.9279042 -3.8802882
41 2 -16.1598797 -12.9279042 -11.223464
42 2 -14.5438919 -11.3119164 -5.611732
43 1 -16.1598797 -12.9279042 3.8802884
44 1 -14.5438919 -11.3119164 1.7314438
45 1 -14.5438919 -11.3119164 9.4920206
46 1 -16.1598797 -12.9279042 7.3431759
47 2 -16.1598797 -12.9279042 0.0
48 2 -14.5438919 -11.3119164 5.611732
49 1 -16.1598797 -12.9279042 15.1037521
50 1 -14.5438919 -11.3119164 12.9549074
51 1 -14.5438919 -11.3119164 20.7154846
52 1 -16.1598797 -12.9279042 18.566639
53 2 -16.1598797 -12.9279042 11.223464
54 2 -14.5438919 -11.3119164 16.8351956
55 1 -16.1598797 -12.9279042 26.3272171
56 1 -14.5438919 -11.3119164 24.1783714
57 1 -14.5438919 -11.3119164 31.9389496
58 1 -16.1598797 -12.9279042 29.7901039
59 2 -16.1598797 -12.9279042 22.446928
60 2 -14.5438919 -11.3119164 28.0586605
61 1 -16.1598797 -9.6959286 -18.566639
62 1 -14.5438919 -8.0799408 -20.7154846
63 1 -14.5438919 -8.0799408 -12.9549074
64 1 -16.1598797 -9.6959286 -15.1037521
65 2 -16.1598797 -9.6959286 -22.446928
66 2 -14.5438919 -8.0799408 -16.8351956
67 1 -16.1598797 -9.6959286 -7.3431759
68 1 -14.5438919 -8.0799408 -9.4920206
69 1 -14.5438919 -8.0799408 -1.7314434
70 1 -16.1598797 -9.6959286 -3.8802882
71 2 -16.1598797 -9.6959286 -11.223464
72 2 -14.5438919 -8.0799408 -5.611732
73 1 -16.1598797 -9.6959286 3.8802884
74 1 -14.5438919 -8.0799408 1.7314438
75 1 -14.5438919 -8.0799408 9.4920206
76 1 -16.1598797 -9.6959286 7.3431759
77 2 -16.1598797 -9.6959286 0.0
78 2 -14.5438919 -8.0799408 5.611732
79 1 -16.1598797 -9.6959286 15.1037521
80 1 -14.5438919 -8.0799408 12.9549074
81 1 -14.5438919 -8.0799408 20.7154846
82 1 -16.1598797 -9.6959286 18.566639
83 2 -16.1598797 -9.6959286 11.223464
84 2 -14.5438919 -8.0799408 16.8351956
85 1 -16.1598797 -9.6959286 26.3272171
86 1 -14.5438919 -8.0799408 24.1783714
87 1 -14.5438919 -8.0799408 31.9389496
88 1 -16.1598797 -9.6959286 29.7901039
89 2 -16.1598797 -9.6959286 22.446928
90 2 -14.5438919 -8.0799408 28.0586605
91 1 -16.1598797 -6.4639521 -18.566639
92 1 -14.5438919 -4.8479644 -20.7154846
93 1 -14.5438919 -4.8479644 -12.9549074
94 1 -16.1598797 -6.4639521 -15.1037521
95 2 -16.1598797 -6.4639521 -22.446928
96 2 -14.5438919 -4.8479644 -16.8351956
97 1 -16.1598797 -6.4639521 -7.3431759
98 1 -14.5438919 -4.8479644 -9.4920206
99 1 -14.5438919 -4.8479644 -1.7314434
100 1 -16.1598797 -6.4639521 -3.8802882
101 2 -16.1598797 -6.4639521 -11.223464
102 2 -14.5438919 -4.8479644 -5.611732
103 1 -16.1598797 -6.4639521 3.8802884
104 1 -14.5438919 -4.8479644 1.7314438
105 1 -14.5438919 -4.8479644 9.4920206
106 1 -16.1598797 -6.4639521 7.3431759
107 2 -16.1598797 -6.4639521 0.0
108 2 -14.5438919 -4.8479644 5.611732
109 1 -16.1598797 -6.4639521 15.1037521
110 1 -14.5438919 -4.8479644 12.9549074
111 1 -14.5438919 -4.8479644 20.7154846
112 1 -16.1598797 -6.4639521 18.566639
113 2 -16.1598797 -6.4639521 11.223464
114 2 -14.5438919 -4.8479644 16.8351956
115 1 -16.1598797 -6.4639521 26.3272171
116 1 -14.5438919 -4.8479644 24.1783714
117 1 -14.5438919 -4.8479644 31.9389496
118 1 -16.1598797 -6.4639521 29.7901039
119 2 -16.1598797 -6.4639521 22.446928
120 2 -14.5438919 -4.8479644 28.0586605
121 1 -16.1598797 -3.231976 -18.566639
122 1 -14.5438919 -1.615988 -20.7154846
123 1 -14.5438919 -1.615988 -12.9549074
124 1 -16.1598797 -3.231976 -15.1037521
125 2 -16.1598797 -3.231976 -22.446928
126 2 -14.5438919 -1.615988 -16.8351956
127 1 -16.1598797 -3.231976 -7.3431759
128 1 -14.5438919 -1.615988 -9.4920206
129 1 -14.5438919 -1.615988 -1.7314434
130 1 -16.1598797 -3.231976 -3.8802882
131 2 -16.1598797 -3.231976 -11.223464
132 2 -14.5438919 -1.615988 -5.611732
133 1 -16.1598797 -3.231976 3.8802884
134 1 -14.5438919 -1.615988 1.7314438
135 1 -14.5438919 -1.615988 9.4920206
136 1 -16.1598797 -3.231976 7.3431759
137 2 -16.1598797 -3.231976 0.0
138 2 -14.5438919 -1.615988 5.611732
139 1 -16.1598797 -3.231976 15.1037521
140 1 -14.5438919 -1.615988 12.9549074
141 1 -14.5438919 -1.615988 20.7154846
142 1 -16.1598797 -3.231976 18.566639
143 2 -16.1598797 -3.231976 11.223464
144 2 -14.5438919 -1.615988 16.8351956
145 1 -16.1598797 -3.231976 26.3272171
146 1 -14.5438919 -1.615988 24.1783714
147 1 -14.5438919 -1.615988 31.9389496
148 1 -16.1598797 -3.231976 29.7901039
149 2 -16.1598797 -3.231976 22.446928
150 2 -14.5438919 -1.615988 28.0586605
151 1 -16.1598797 0.0 -18.566639
152 1 -14.5438919 1.615988 -20.7154846
153 1 -14.5438919 1.615988 -12.9549074
154 1 -16.1598797 0.0 -15.1037521
155 2 -16.1598797 0.0 -22.446928
156 2 -14.5438919 1.615988 -16.8351956
157 1 -16.1598797 0.0 -7.3431759
158 1 -14.5438919 1.615988 -9.4920206
159 1 -14.5438919 1.615988 -1.7314434
160 1 -16.1598797 0.0 -3.8802882
161 2 -16.1598797 0.0 -11.223464
162 2 -14.5438919 1.615988 -5.611732
163 1 -16.1598797 0.0 3.8802884
164 1 -14.5438919 1.615988 1.7314438
165 1 -14.5438919 1.615988 9.4920206
166 1 -16.1598797 0.0 7.3431759
167 2 -16.1598797 0.0 0.0
168 2 -14.5438919 1.615988 5.611732
169 1 -16.1598797 0.0 15.1037521
170 1 -14.5438919 1.615988 12.9549074
171 1 -14.5438919 1.615988 20.7154846
172 1 -16.1598797 0.0 18.566639
173 2 -16.1598797 0.0 11.223464
174 2 -14.5438919 1.615988 16.8351956
175 1 -16.1598797 0.0 26.3272171
176 1 -14.5438919 1.615988 24.1783714
177 1 -14.5438919 1.615988 31.9389496
178 1 -16.1598797 0.0 29.7901039
179 2 -16.1598797 0.0 22.446928
180 2 -14.5438919 1.615988 28.0586605
181 1 -16.1598797 3.231976 -18.566639
182 1 -14.5438919 4.8479644 -20.7154846
183 1 -14.5438919 4.8479644 -12.9549074
184 1 -16.1598797 3.231976 -15.1037521
185 2 -16.1598797 3.231976 -22.446928
186 2 -14.5438919 4.8479644 -16.8351956
187 1 -16.1598797 3.231976 -7.3431759
188 1 -14.5438919 4.8479644 -9.4920206
189 1 -14.5438919 4.8479644 -1.7314434
190 1 -16.1598797 3.231976 -3.8802882
191 2 -16.1598797 3.231976 -11.223464
192 2 -14.5438919 4.8479644 -5.611732
193 1 -16.1598797 3.231976 3.8802884
194 1 -14.5438919 4.8479644 1.7314438
195 1 -14.5438919 4.8479644 9.4920206
196 1 -16.1598797 3.231976 7.3431759
197 2 -16.1598797 3.231976 0.0
198 2 -14.5438919 4.8479644 5.611732
199 1 -16.1598797 3.231976 15.1037521
200 1 -14.5438919 4.8479644 12.9549074
201 1 -14.5438919 4.8479644 20.7154846
202 1 -16.1598797 3.231976 18.566639
203 2 -16.1598797 3.231976 11.223464
204 2 -14.5438919 4.8479644 16.8351956
205 1 -16.1598797 3.231976 26.3272171
206 1 -14.5438919 4.8479644 24.1783714
207 1 -14.5438919 4.8479644 31.9389496
208 1 -16.1598797 3.231976 29.7901039
209 2 -16.1598797 3.231976 22.446928
210 2 -14.5438919 4.8479644 28.0586605
211 1 -16.1598797 6.4639521 -18.566639
212 1 -14.5438919 8.0799398 -20.7154846
213 1 -14.5438919 8.0799398 -12.9549074
214 1 -16.1598797 6.4639521 -15.1037521
215 2 -16.1598797 6.4639521 -22.446928
216 2 -14.5438919 8.0799398 -16.8351956
217 1 -16.1598797 6.4639521 -7.3431759
218 1 -14.5438919 8.0799398 -9.4920206
219 1 -14.5438919 8.0799398 -1.7314434
220 1 -16.1598797 6.4639521 -3.8802882
221 2 -16.1598797 6.4639521 -11.223464
222 2 -14.5438919 8.0799398 -5.611732
223 1 -16.1598797 6.4639521 3.8802884
224 1 -14.5438919 8.0799398 1.7314438
225 1 -14.5438919 8.0799398 9.4920206
226 1 -16.1598797 6.4639521 7.3431759
227 2 -16.1598797 6.4639521 0.0
228 2 -14.5438919 8.0799398 5.611732
229 1 -16.1598797 6.4639521 15.1037521
230 1 -14.5438919 8.0799398 12.9549074
231 1 -14.5438919 8.0799398 20.7154846
232 1 -16.1598797 6.4639521 18.566639
233 2 -16.1598797 6.4639521 11.223464
234 2 -14.5438919 8.0799398 16.8351956
235 1 -16.1598797 6.4639521 26.3272171
236 1 -14.5438919 8.0799398 24.1783714
237 1 -14.5438919 8.0799398 31.9389496
238 1 -16.1598797 6.4639521 29.7901039
239 2 -16.1598797 6.4639521 22.446928
240 2 -14.5438919 8.0799398 28.0586605
241 1 -16.1598797 9.6959286 -18.566639
242 1 -14.5438919 11.3119164 -20.7154846
243 1 -14.5438919 11.3119164 -12.9549074
244 1 -16.1598797 9.6959286 -15.1037521
245 2 -16.1598797 9.6959286 -22.446928
246 2 -14.5438919 11.3119164 -16.8351956
247 1 -16.1598797 9.6959286 -7.3431759
248 1 -14.5438919 11.3119164 -9.4920206
249 1 -14.5438919 11.3119164 -1.7314434
250 1 -16.1598797 9.6959286 -3.8802882
251 2 -16.1598797 9.6959286 -11.223464
252 2 -14.5438919 11.3119164 -5.611732
253 1 -16.1598797 9.6959286 3.8802884
254 1 -14.5438919 11.3119164 1.7314438
255 1 -14.5438919 11.3119164 9.4920206
256 1 -16.1598797 9.6959286 7.3431759
257 2 -16.1598797 9.6959286 0.0
258 2 -14.5438919 11.3119164 5.611732
259 1 -16.1598797 9.6959286 15.1037521
260 1 -14.5438919 11.3119164 12.9549074
261 1 -14.5438919 11.3119164 20.7154846
262 1 -16.1598797 9.6959286 18.566639
263 2 -16.1598797 9.6959286 11.223464
264 2 -14.5438919 11.3119164 16.8351956
265 1 -16.1598797 9.6959286 26.3272171
266 1 -14.5438919 11.3119164 24.1783714
267 1 -14.5438919 11.3119164 31.9389496
268 1 -16.1598797 9.6959286 29.7901039
269 2 -16.1598797 9.6959286 22.446928
270 2 -14.5438919 11.3119164 28.0586605
271 1 -16.1598797 12.9279042 -18.566639
272 1 -14.5438919 14.5438919 -20.7154846
273 1 -14.5438919 14.5438919 -12.9549074
274 1 -16.1598797 12.9279042 -15.1037521
275 2 -16.1598797 12.9279042 -22.446928
276 2 -14.5438919 14.5438919 -16.8351956
277 1 -16.1598797 12.9279042 -7.3431759
278 1 -14.5438919 14.5438919 -9.4920206
279 1 -14.5438919 14.5438919 -1.7314434
280 1 -16.1598797 12.9279042 -3.8802882
281 2 -16.1598797 12.9279042 -11.223464
282 2 -14.5438919 14.5438919 -5.611732
283 1 -16.1598797 12.9279042 3.8802884
284 1 -14.5438919 14.5438919 1.7314438
285 1 -14.5438919 14.5438919 9.4920206
286 1 -16.1598797 12.9279042 7.3431759
287 2 -16.1598797 12.9279042 0.0
288 2 -14.5438919 14.5438919 5.611732
289 1 -16.1598797 12.9279042 15.1037521
290 1 -14.5438919 14.5438919 12.9549074
291 1 -14.5438919 14.5438919 20.7154846
292 1 -16.1598797 12.9279042 18.566639
293 2 -16.1598797 12.9279042 11.223464
294 2 -14.5438919 14.5438919 16.8351956
295 1 -16.1598797 12.9279042 26.3272171
296 1 -14.5438919 14.5438919 24.1783714
297 1 -14.5438919 14.5438919 31.9389496
298 1 -16.1598797 12.9279042 29.7901039
299 2 -16.1598797 12.9279042 22.446928
300 2 -14.5438919 14.5438919 28.0586605
301 1 -16.1598797 16.1598797 -18.566639
302 1 -14.5438919 17.7758675 -20.7154846
303 1 -14.5438919 17.7758675 -12.9549074
304 1 -16.1598797 16.1598797 -15.1037521
305 2 -16.1598797 16.1598797 -22.446928
306 2 -14.5438919 17.7758675 -16.8351956
307 1 -16.1598797 16.1598797 -7.3431759
308 1 -14.5438919 17.7758675 -9.4920206
309 1 -14.5438919 17.7758675 -1.7314434
310 1 -16.1598797 16.1598797 -3.8802882
311 2 -16.1598797 16.1598797 -11.223464
312 2 -14.5438919 17.7758675 -5.611732
313 1 -16.1598797 16.1598797 3.8802884
314 1 -14.5438919 17.7758675 1.7314438
315 1 -14.5438919 17.7758675 9.4920206
316 1 -16.1598797 16.1598797 7.3431759
317 2 -16.1598797 16.1598797 0.0
318 2 -14.5438919 17.7758675 5.611732
319 1 -16.1598797 16.1598797 15.1037521
320 1 -14.5438919 17.7758675 12.9549074
321 1 -14.5438919 17.7758675 20.7154846
322 1 -16.1598797 16.1598797 18.566639
323 2 -16.1598797 16.1598797 11.223464
324 2 -14.5438919 17.7758675 16.8351956
325 1 -16.1598797 16.1598797 26.3272171
326 1 -14.5438919 17.7758675 24.1783714
327 1 -14.5438919 17.7758675 31.9389496
328 1 -16.1598797 16.1598797 29.7901039
329 2 -16.1598797 16.1598797 22.446928
330 2 -14.5438919 17.7758675 28.0586605
331 1 -16.1598797 19.3918572 -18.566639
332 1 -14.5438919 21.0078449 -20.7154846
333 1 -14.5438919 21.0078449 -12.9549074
334 1 -16.1598797 19.3918572 -15.1037521
335 2 -16.1598797 19.3918572 -22.446928
336 2 -14.5438919 21.0078449 -16.8351956
337 1 -16.1598797 19.3918572 -7.3431759
338 1 -14.5438919 21.0078449 -9.4920206
339 1 -14.5438919 21.0078449 -1.7314434
340 1 -16.1598797 19.3918572 -3.8802882
341 2 -16.1598797 19.3918572 -11.223464
342 2 -14.5438919 21.0078449 -5.611732
343 1 -16.1598797 19.3918572 3.8802884
344 1 -14.5438919 21.0078449 1.7314438
345 1 -14.5438919 21.0078449 9.4920206
346 1 -16.1598797 19.3918572 7.3431759
347 2 -16.1598797 19.3918572 0.0
348 2 -14.5438919 21.0078449 5.611732
349 1 -16.1598797 19.3918572 15.1037521
350 1 -14.5438919 21.0078449 12.9549074
351 1 -14.5438919 21.0078449 20.7154846
352 1 -16.1598797 19.3918572 18.566639
353 2 -16.1598797 19.3918572 11.223464
354 2 -14.5438919 21.0078449 16.8351956
355 1 -16.1598797 19.3918572 26.3272171
356 1 -14.5438919 21.0078449 24.1783714
357 1 -14.5438919 21.0078449 31.9389496
358 1 -16.1598797 19.3918572 29.7901039
359 2 -16.1598797 19.3918572 22.446928
360 2 -14.5438919 21.0078449 28.0586605
361 1 -12.9279042 -16.1598797 -18.566639
362 1 -11.3119164 -14.5438919 -20.7154846
363 1 -11.3119164 -14.5438919 -12.9549074
364 1 -12.9279042 -16.1598797 -15.1037521
365 2 -12.9279042 -16.1598797 -22.446928
366 2 -11.3119164 -14.5438919 -16.8351956
367 1 -12.9279042 -16.1598797 -7.3431759
368 1 -11.3119164 -14.5438919 -9.4920206
369 1 -11.3119164 -14.5438919 -1.7314434
370 1 -12.9279042 -16.1598797 -3.8802882
371 2 -12.9279042 -16.1598797 -11.223464
372 2 -11.3119164 -14.5438919 -5.611732
373 1 -12.9279042 -16.1598797 3.8802884
374 1 -11.3119164 -14.5438919 1.7314438
375 1 -11.3119164 -14.5438919 9.4920206
376 1 -12.9279042 -16.1598797 7.3431759
377 2 -12.9279042 -16.1598797 0.0
378 2 -11.3119164 -14.5438919 5.611732
379 1 -12.9279042 -16.1598797 15.1037521
380 1 -11.3119164 -14.5438919 12.9549074
381 1 -11.3119164 -14.5438919 20.7154846
382 1 -12.9279042 -16.1598797 18.566639
383 2 -12.9279042 -16.1598797 11.223464
384 2 -11.3119164 -14.5438919 16.8351956
385 1 -12.9279042 -16.1598797 26.3272171
386 1 -11.3119164 -14.5438919 24.1783714
387 1 -11.3119164 -14.5438919 31.9389496
388 1 -12.9279042 -16.1598797 29.7901039
389 2 -12.9279042 -16.1598797 22.446928
390 2 -11.3119164 -14.5438919 28.0586605
391 1 -12.9279042 -12.9279042 -18.566639
392 1 -11.3119164 -11.3119164 -20.7154846
393 1 -11.3119164 -11.3119164 -12.9549074
394 1 -12.9279042 -12.9279042 -15.1037521
395 2 -12.9279042 -12.9279042 -22.446928
396 2 -11.3119164 -11.3119164 -16.8351956
397 1 -12.9279042 -12.9279042 -7.3431759
398 1 -11.3119164 -11.3119164 -9.4920206
399 1 -11.3119164 -11.3119164 -1.7314434
400 1 -12.9279042 -12.9279042 -3.8802882
401 2 -12.9279042 -12.9279042 -11.223464
402 2 -11.3119164 -11.3119164 -5.611732
403 1 -12.9279042 -12.9279042 3.8802884
404 1 -11.3119164 -11.3119164 1.7314438
405 1 -11.3119164 -11.3119164 9.4920206
406 1 -12.9279042 -12.9279042 7.3431759
407 2 -12.9279042 -12.9279042 0.0
408 2 -11.3119164 -11.3119164 5.611732
409 1 -12.9279042 -12.9279042 15.1037521
410 1 -11.3119164 -11.3119164 12.9549074
411 1 -11.3119164 -11.3119164 20.7154846
412 1 -12.9279042 -12.9279042 18.566639
413 2 -12.9279042 -12.9279042 11.223464
414 2 -11.3119164 -11.3119164 16.8351956
415 1 -12.9279042 -12.9279042 26.3272171
416 1 -11.3119164 -11.3119164 24.1783714
417 1 -11.3119164 -11.3119164 31.9389496
418 1 -12.9279042 -12.9279042 29.7901039
419 2 -12.9279042 -12.9279042 22.446928
420 2 -11.3119164 -11.3119164 28.0586605
421 1 -12.9279042 -9.6959286 -18.566639
422 1 -11.3119164 -8.0799408 -20.7154846
423 1 -11.3119164 -8.0799408 -12.9549074
424 1 -12.9279042 -9.6959286 -15.1037521
425 2 -12.9279042 -9.6959286 -22.446928
426 2 -11.3119164 -8.0799408 -16.8351956
427 1 -12.9279042 -9.6959286 -7.3431759
428 1 -11.3119164 -8.0799408 -9.4920206
429 1 -11.3119164 -8.0799408 -1.7314434
430 1 -12.9279042 -9.6959286 -3.8802882
431 2 -12.9279042 -9.6959286 -11.223464
432 2 -11.3119164 -8.0799408 -5.611732
433 1 -12.9279042 -9.6959286 3.8802884
434 1 -11.3119164 -8.0799408 1.7314438
435 1 -11.3119164 -8.0799408 9.4920206
436 1 -12.9279042 -9.6959286 7.3431759
437 2 -12.9279042 -9.6959286 0.0
438 2 -11.3119164 -8.0799408 5.611732
439 1 -12.9279042 -9.6959286 15.1037521
440 1 -11.3119164 -8.0799408 12.9549074
441 1 -11.3119164 -8.0799408 20.7154846
442 1 -12.9279042 -9.6959286 18.566639
443 2 -12.9279042 -9.6959286 11.223464
444 2 -11.3119164 -8.0799408 16.8351956
445 1 -12.9279042 -9.6959286 26.3272171
446 1 -11.3119164 -8.0799408 24.1783714
447 1 -11.3119164 -8.0799408 31.9389496
448 1 -12.9279042 -9.6959286 29.7901039
449 2 -12.9279042 -9.6959286 22.446928
450 2 -11.3119164 -8.0799408 28.0586605
451 1 -12.9279042 -6.4639521 -18.566639
452 1 -11.3119164 -4.8479644 -20.7154846
453 1 -11.3119164 -4.8479644 -12.9549074
454 1 -12.9279042 -6.4639521 -15.1037521
455 2 -12.9279042 -6.4639521 -22.446928
456 2 -11.3119164 -4.8479644 -16.8351956
457 1 -12.9279042 -6.4639521 -7.3431759
458 1 -11.3119164 -4.8479644 -9.4920206
459 1 -11.3119164 -4.8479644 -1.7314434
460 1 -12.9279042 -6.4639521 -3.8802882
461 2 -12.9279042 -6.4639521 -11.223464
462 2 -11.3119164 -4.8479644 -5.611732
463 1 -12.9279042 -6.4639521 3.8802884
464 1 -11.3119164 -4.8479644 1.7314438
465 1 -11.3119164 -4.8479644 9.4920206
466 1 -12.9279042 -6.4639521 7.3431759
467 2 -12.9279042 -6.4639521 0.0
468 2 -11.3119164 -4.8479644 5.611732
469 1 -12.9279042 -6.4639521 15.1037521
470 1 -11.3119164 -4.8479644 12.9549074
471 1 -11.3119164 -4.8479644 20.7154846
472 1 -12.9279042 -6.4639521 18.566639
473 2 -12.9279042 -6.4639521 11.223464
474 2 -11.3119164 -4.8479644 16.8351956
475 1 -12.9279042 -6.4639521 26.3272171
476 1 -11.3119164 -4.8479644 24.1783714
477 1 -11.3119164 -4.8479644 31.9389496
478 1 -12.9279042 -6.4639521 29.7901039
479 2 -12.9279042 -6.4639521 22.446928
480 2 -11.3119164 -4.8479644 28.0586605
481 1 -12.9279042 -3.231976 -18.566639
482 1 -11.3119164 -1.615988 -20.7154846
483 1 -11.3119164 -1.615988 -12.9549074
484 1 -12.9279042 -3.231976 -15.1037521
485 2 -12.9279042 -3.231976 -22.446928
486 2 -11.3119164 -1.615988 -16.8351956
487 1 -12.9279042 -3.231976 -7.3431759
488 1 -11.3119164 -1.615988 -9.4920206
489 1 -11.3119164 -1.615988 -1.7314434
490 1 -12.9279042 -3.231976 -3.8802882
491 2 -12.9279042 -3.231976 -11.223464
492 2 -11.3119164 -1.615988 -5.611732
493 1 -12.9279042 -3.231976 3.8802884
494 1 -11.3119164 -1.615988 1.7314438
495 1 -11.3119164 -1.615988 9.4920206
496 1 -12.9279042 -3.231976 7.3431759
497 2 -12.9279042 -3.231976 0.0
498 2 -11.3119164 -1.615988 5.611732
499 1 -12.9279042 -3.231976 15.1037521
500 1 -11.3119164 -1.615988 12.9549074
501 1 -11.3119164 -1.615988 20.7154846
502 1 -12.9279042 -3.231976 18.566639
503 2 -12.9279042 -3.231976 11.223464
504 2 -11.3119164 -1.615988 16.8351956
505 1 -12.9279042 -3.231976 26.3272171
506 1 -11.3119164 -1.615988 24.1783714
507 1 -11.3119164 -1.615988 31.9389496
508 1 -12.9279042 -3.231976 29.7901039
509 2 -12.9279042 -3.231976 22.446928
510 2 -11.3119164 -1.615988 28.0586605
511 1 -12.9279042 0.0 -18.566639
512 1 -11.3119164 1.615988 -20.7154846
513 1 -11.3119164 1.615988 -12.9549074
514 1 -12.9279042 0.0 -15.1037521
515 2 -12.9279042 0.0 -22.446928
516 2 -11.3119164 1.615988 -16.8351956
517 1 -12.9279042 0.0 -7.3431759
518 1 -11.3119164 1.615988 -9.4920206
519 1 -11.3119164 1.615988 -1.7314434
520 1 -12.9279042 0.0 -3.8802882
521 2 -12.9279042 0.0 -11.223464
522 2 -11.3119164 1.615988 -5.611732
523 1 -12.9279042 0.0 3.8802884
524 1 -11.3119164 1.615988 1.7314438
525 1 -11.3119164 1.615988 9.4920206
526 1 -12.9279042 0.0 7.3431759
527 2 -12.9279042 0.0 0.0
528 2 -11.3119164 1.615988 5.611732
529 1 -12.9279042 0.0 15.1037521
530 1 -11.3119164 1.615988 12.9549074
531 1 -11.3119164 1.615988 20.7154846
532 1 -12.9279042 0.0 18.566639
533 2 -12.9279042 0.0 11.223464
534 2 -11.3119164 1.615988 16.8351956
535 1 -12.9279042 0.0 26.3272171
536 1 -11.3119164 1.615988 24.1783714
537 1 -11.3119164 1.615988 31.9389496
538 1 -12.9279042 0.0 29.7901039
539 2 -12.9279042 0.0 22.446928
540 2 -11.3119164 1.615988 28.0586605
541 1 -12.9279042 3.231976 -18.566639
542 1 -11.3119164 4.8479644 -20.7154846
543 1 -11.3119164 4.8479644 -12.9549074
544 1 -12.9279042 3.231976 -15.1037521
545 2 -12.9279042 3.231976 -22.446928
546 2 -11.3119164 4.8479644 -16.8351956
547 1 -12.9279042 3.231976 -7.3431759
548 1 -11.3119164 4.8479644 -9.4920206
549 1 -11.3119164 4.8479644 -1.7314434
550 1 -12.9279042 3.231976 -3.8802882
551 2 -12.9279042 3.231976 -11.223464
552 2 -11.3119164 4.8479644 -5.611732
553 1 -12.9279042 3.231976 3.8802884
554 1 -11.3119164 4.8479644 1.7314438
555 1 -11.3119164 4.8479644 9.4920206
556 1 -12.9279042 3.231976 7.3431759
557 2 -12.9279042 3.231976 0.0
558 2 -11.3119164 4.8479644 5.611732
559 1 -12.9279042 3.231976 15.1037521
560 1 -11.3119164 4.8479644 12.9549074
561 1 -11.3119164 4.8479644 20.7154846
562 1 -12.9279042 3.231976 18.566639
563 2 -12.9279042 3.231976 11.223464
564 2 -11.3119164 4.8479644 16.8351956
565 1 -12.9279042 3.231976 26.3272171
566 1 -11.3119164 4.8479644 24.1783714
567 1 -11.3119164 4.8479644 31.9389496
568 1 -12.9279042 3.231976 29.7901039
569 2 -12.9279042 3.231976 22.446928
570 2 -11.3119164 4.8479644 28.0586605
571 1 -12.9279042 6.4639521 -18.566639
572 1 -11.3119164 8.0799398 -20.7154846
573 1 -11.3119164 8.0799398 -12.9549074
574 1 -12.9279042 6.4639521 -15.1037521
575 2 -12.9279042 6.4639521 -22.446928
576 2 -11.3119164 8.0799398 -16.8351956
577 1 -12.9279042 6.4639521 -7.3431759
578 1 -11.3119164 8.0799398 -9.4920206
579 1 -11.3119164 8.0799398 -1.7314434
580 1 -12.9279042 6.4639521 -3.8802882
581 2 -12.9279042 6.4639521 -11.223464
582 2 -11.3119164 8.0799398 -5.611732
583 1 -12.9279042 6.4639521 3.8802884
584 1 -11.3119164 8.0799398 1.7314438
585 1 -11.3119164 8.0799398 9.4920206
586 1 -12.9279042 6.4639521 7.3431759
587 2 -12.9279042 6.4639521 0.0
588 2 -11.3119164 8.0799398 5.611732
589 1 -12.9279042 6.4639521 15.1037521
590 1 -11.3119164 8.0799398 12.9549074
591 1 -11.3119164 8.0799398 20.7154846
592 1 -12.9279042 6.4639521 18.566639
593 2 -12.9279042 6.4639521 11.223464
594 2 -11.3119164 8.0799398 16.8351956
595 1 -12.9279042 6.4639521 26.3272171
596 1 -11.3119164 8.0799398 24.1783714
597 1 -11.3119164 8.0799398 31.9389496
598 1 -12.9279042 6.4639521 29.7901039
599 2 -12.9279042 6.4639521 22.446928
600 2 -11.3119164 8.0799398 28.0586605
601 1 -12.9279042 9.6959286 -18.566639
602 1 -11.3119164 11.3119164 -20.7154846
603 1 -11.3119164 11.3119164 -12.9549074
604 1 -12.9279042 9.6959286 -15.1037521
605 2 -12.9279042 9.6959286 -22.446928
606 2 -11.3119164 11.3119164 -16.8351956
607 1 -12.9279042 9.6959286 -7.3431759
608 1 -11.3119164 11.3119164 -9.4920206
609 1 -11.3119164 11.3119164 -1.7314434
610 1 -12.9279042 9.6959286 -3.8802882
611 2 -12.9279042 9.6959286 -11.223464
612 2 -11.3119164 11.3119164 -5.611732
613 1 -12.9279042 9.6959286 3.8802884
614 1 -11.3119164 11.3119164 1.7314438
615 1 -11.3119164 11.3119164 9.4920206
616 1 -12.9279042 9.6959286 7.3431759
617 2 -12.9279042 9.6959286 0.0
618 2 -11.3119164 11.3119164 5.611732
619 1 -12.9279042 9.6959286 15.1037521
620 1 -11.3119164 11.3119164 12.9549074
621 1 -11.3119164 11.3119164 20.7154846
622 1 -12.9279042 9.6959286 18.566639
623 2 -12.9279042 9.6959286 11.223464
624 2 -11.3119164 11.3119164 16.8351956
625 1 -12.9279042 9.6959286 26.3272171
626 1 -11.3119164 11.3119164 24.1783714
627 1 -11.3119164 11.3119164 31.9389496
628 1 -12.9279042 9.6959286 29.7901039
629 2 -12.9279042 9.6959286 22.446928
630 2 -11.3119164 11.3119164 28.0586605
631 1 -12.9279042 12.9279042 -18.566639
632 1 -11.3119164 14.5438919 -20.7154846
633 1 -11.3119164 14.5438919 -12.9549074
634 1 -12.9279042 12.9279042 -15.1037521
635 2 -12.9279042 12.9279042 -22.446928
636 2 -11.3119164 14.5438919 -16.8351956
637 1 -12.9279042 12.9279042 -7.3431759
638 1 -11.3119164 14.5438919 -9.4920206
639 1 -11.3119164 14.5438919 -1.7314434
640 1 -12.9279042 12.9279042 -3.8802882
641 2 -12.9279042 12.9279042 -11.223464
642 2 -11.3119164 14.5438919 -5.611732
643 1 -12.9279042 12.9279042 3.8802884
644 1 -11.3119164 14.5438919 1.7314438
645 1 -11.3119164 14.5438919 9.4920206
646 1 -12.9279042 12.9279042 7.3431759
647 2 -12.9279042 12.9279042 0.0
648 2 -11.3119164 14.5438919 5.611732
649 1 -12.9279042 12.9279042 15.1037521
650 1 -11.3119164 14.5438919 12.9549074
651 1 -11.3119164 14.5438919 20.7154846
652 1 -12.9279042 12.9279042 18.566639
653 2 -12.9279042 12.9279042 11.223464
654 2 -11.3119164 14.5438919 16.8351956
655 1 -12.9279042 12.9279042 26.3272171
656 1 -11.3119164 14.5438919 24.1783714
657 1 -11.3119164 14.5438919 31.9389496
658 1 -12.9279042 12.9279042 29.7901039
659 2 -12.9279042 12.9279042 22.446928
660 2 -11.3119164 14.5438919 28.0586605
661 1 -12.9279042 16.1598797 -18.566639
662 1 -11.3119164 17.7758675 -20.7154846
663 1 -11.3119164 17.7758675 -12.9549074
664 1 -12.9279042 16.1598797 -15.1037521
665 2 -12.9279042 16.1598797 -22.446928
666 2 -11.3119164 17.7758675 -16.8351956
667 1 -12.9279042 16.1598797 -7.3431759
668 1 -11.3119164 17.7758675 -9.4920206
669 1 -11.3119164 17.7758675 -1.7314434
670 1 -12.9279042 16.1598797 -3.8802882
671 2 -12.9279042 16.1598797 -11.223464
672 2 -11.3119164 17.7758675 -5.611732
673 1 -12.9279042 16.1598797 3.8802884
674 1 -11.3119164 17.7758675 1.7314438
675 1 -11.3119164 17.7758675 9.4920206
676 1 -12.9279042 16.1598797 7.3431759
677 2 -12.9279042 16.1598797 0.0
678 2 -11.3119164 17.7758675 5.611732
679 1 -12.9279042 16.1598797 15.1037521
680 1 -11.3119164 17.7758675 12.9549074
681 1 -11.3119164 17.7758675 20.7154846
682 1 -12.9279042 16.1598797 18.566639
683 2 -12.9279042 16.1598797 11.223464
684 2 -11.3119164 17.7758675 16.8351956
685 1 -12.9279042 16.1598797 26.3272171
686 1 -11.3119164 17.7758675 24.1783714
687 1 -11.3119164 17.7758675 31.9389496
688 1 -12.9279042 16.1598797 29.7901039
689 2 -12.9279042 16.1598797 22.446928
690 2 -11.3119164 17.7758675 28.0586605
691 1 -12.9279042 19.3918572 -18.566639
692 1 -11.3119164 21.0078449 -20.7154846
693 1 -11.3119164 21.0078449 -12.9549074
694 1 -12.9279042 19.3918572 -15.1037521
695 2 -12.9279042 19.3918572 -22.446928
696 2 -11.3119164 21.0078449 -16.8351956
697 1 -12.9279042 19.3918572 -7.3431759
698 1 -11.3119164 21.0078449 -9.4920206
699 1 -11.3119164 21.0078449 -1.7314434
700 1 -12.9279042 19.3918572 -3.8802882
701 2 -12.9279042 19.3918572 -11.223464
702 2 -11.3119164 21.0078449 -5.611732
703 1 -12.9279042 19.3918572 3.8802884
704 1 -11.3119164 21.0078449 1.7314438
705 1 -11.3119164 21.0078449 9.4920206
706 1 -12.9279042 19.3918572 7.3431759
707 2 -12.9279042 19.3918572 0.0
708 2 -11.3119164 21.0078449 5.611732
709 1 -12.9279042 19.3918572 15.1037521
710 1 -11.3119164 21.0078449 12.9549074
711 1 -11.3119164 21.0078449 20.7154846
712 1 -12.9279042 19.3918572 18.566639
713 2 -12.9279042 19.3918572 11.223464
714 2 -11.3119164 21.0078449 16.8351956
715 1 -12.9279042 19.3918572 26.3272171
716 1 -11.3119164 21.0078449 24.1783714
717 1 -11.3119164 21.0078449 31.9389496
718 1 -12.9279042 19.3918572 29.7901039
719 2 -12.9279042 19.3918572 22.446928
720 2 -11.3119164 21.0078449 28.0586605
721 1 -9.6959286 -16.1598797 -18.566639
722 1 -8.0799408 -14.5438919 -20.7154846
723 1 -8.0799408 -14.5438919 -12.9549074
724 1 -9.6959286 -16.1598797 -15.1037521
725 2 -9.6959286 -16.1598797 -22.446928
726 2 -8.0799408 -14.5438919 -16.8351956
727 1 -9.6959286 -16.1598797 -7.3431759
728 1 -8.0799408 -14.5438919 -9.4920206
729 1 -8.0799408 -14.5438919 -1.7314434
730 1 -9.6959286 -16.1598797 -3.8802882
731 2 -9.6959286 -16.1598797 -11.223464
732 2 -8.0799408 -14.5438919 -5.611732
733 1 -9.6959286 -16.1598797 3.8802884
734 1 -8.0799408 -14.5438919 1.7314438
735 1 -8.0799408 -14.5438919 9.4920206
736 1 -9.6959286 -16.1598797 7.3431759
737 2 -9.6959286 -16.1598797 0.0
738 2 -8.0799408 -14.5438919 5.611732
739 1 -9.6959286 -16.1598797 15.1037521
740 1 -8.0799408 -14.5438919 12.9549074
741 1 -8.0799408 -14.5438919 20.7154846
742 1 -9.6959286 -16.1598797 18.566639
743 2 -9.6959286 -16.1598797 11.223464
744 2 -8.0799408 -14.5438919 16.8351956
745 1 -9.6959286 -16.1598797 26.3272171
746 1 -8.0799408 -14.5438919 24.1783714
747 1 -8.0799408 -14.5438919 31.9389496
748 1 -9.6959286 -16.1598797 29.7901039
749 2 -9.6959286 -16.1598797 22.446928
750 2 -8.0799408 -14.5438919 28.0586605
751 1 -9.6959286 -12.9279042 -18.566639
752 1 -8.0799408 -11.3119164 -20.7154846
753 1 -8.0799408 -11.3119164 -12.9549074
754 1 -9.6959286 -12.9279042 -15.1037521
755 2 -9.6959286 -12.9279042 -22.446928
756 2 -8.0799408 -11.3119164 -16.8351956
757 1 -9.6959286 -12.9279042 -7.3431759
758 1 -8.0799408 -11.3119164 -9.4920206
759 1 -8.0799408 -11.3119164 -1.7314434
760 1 -9.6959286 -12.9279042 -3.8802882
761 2 -9.6959286 -12.9279042 -11.223464
762 2 -8.0799408 -11.3119164 -5.611732
763 1 -9.6959286 -12.9279042 3.8802884
764 1 -8.0799408 -11.3119164 1.7314438
765 1 -8.0799408 -11.3119164 9.4920206
766 1 -9.6959286 -12.9279042 7.3431759